_eclasses_=toolchain-funcs	4b8d3388c0a6e798504e20ba30b49361	multilib	df4e4d5cfd3d137d0c248e1991c0e4d6	fortran-2	eb14fa8f4c3b9977b8d26c2c653ca325	eutils	351a78113be5b393c09a2c948701ad36
_md5_=621d522e35bbe534589b3fd20919ea42
SLOT=0
DEFINED_PHASES=compile install prepare setup
EAPI=5
DEPEND=virtual/fortran
DESCRIPTION=a general purpose molecular dynamics simulation package
LICENSE=BSD
IUSE=doc
SRC_URI=http://ccpforge.cse.rl.ac.uk/gf/download/frsrelease/255/2627/dl_class_1.9.tar.gz
KEYWORDS=~amd64
HOMEPAGE=http://www.ccp5.ac.uk/DL_POLY_CLASSIC/
RDEPEND=virtual/fortran
