DEFINED_PHASES=compile install prepare setup
DEPEND=virtual/fortran
DESCRIPTION=a general purpose molecular dynamics simulation package
EAPI=5
HOMEPAGE=http://www.ccp5.ac.uk/DL_POLY_CLASSIC/
IUSE=doc
KEYWORDS=~amd64
LICENSE=BSD
RDEPEND=virtual/fortran
SLOT=0
SRC_URI=http://ccpforge.cse.rl.ac.uk/gf/download/frsrelease/255/2627/dl_class_1.9.tar.gz
_eclasses_=eutils	95613dd6157fb4a3b225eafdc56bd441	fortran-2	eb14fa8f4c3b9977b8d26c2c653ca325	multilib	df4e4d5cfd3d137d0c248e1991c0e4d6	toolchain-funcs	1dfcad7b3f439dbc511d76c49f23da0d
_md5_=d2a71886ef255df7ce50f3a218ce9d78
