DEFINED_PHASES=compile install prepare setup
DEPEND=virtual/fortran
DESCRIPTION=a general purpose molecular dynamics simulation package
EAPI=5
HOMEPAGE=http://www.ccp5.ac.uk/DL_POLY_CLASSIC/
IUSE=doc
KEYWORDS=~amd64
LICENSE=BSD
RDEPEND=virtual/fortran
SLOT=0
SRC_URI=http://ccpforge.cse.rl.ac.uk/gf/download/frsrelease/255/2627/dl_class_1.9.tar.gz
_eclass_exported_funcs=pkg_setup:fortran-2 src_prepare:- src_compile:- src_install:-
_eclasses_=eutils	9d81603248f2ba3ec59124320d123e5e	fortran-2	8200fc942c3b3c1fc75d4d5bfd0ba7a2	multilib	23ae8c186171e6476af098d2a50d0ee0	toolchain-funcs	d513d423d449877e49d99af3f7af7acb
_md5_=d2a71886ef255df7ce50f3a218ce9d78
