DEFINED_PHASES=compile install prepare setup
DEPEND=virtual/fortran
DESCRIPTION=a general purpose molecular dynamics simulation package
EAPI=5
HOMEPAGE=http://www.ccp5.ac.uk/DL_POLY_CLASSIC/
IUSE=doc
KEYWORDS=~amd64
LICENSE=BSD
RDEPEND=virtual/fortran
SLOT=0
SRC_URI=http://ccpforge.cse.rl.ac.uk/gf/download/frsrelease/255/2627/dl_class_1.9.tar.gz
_eclasses_=eutils	351a78113be5b393c09a2c948701ad36	fortran-2	eb14fa8f4c3b9977b8d26c2c653ca325	multilib	df4e4d5cfd3d137d0c248e1991c0e4d6	toolchain-funcs	4b8d3388c0a6e798504e20ba30b49361
_md5_=621d522e35bbe534589b3fd20919ea42
